% Model:              Untitled.mph
% Version:            COMSOL 6.3.0.335
% Date:               Mar 27 2025, 14:44
% Dimension:          2
% Nodes:              2626
% Expressions:        0
% Description:        
% Length unit:        m
% x                       y
0.0858365941291222        -0.950777012633112
0.06951836212282445       -0.9716860255224696
0.13903910833611471       -0.9706937443569924
0.04495412684022698       -0.9502627602533285
0                         -0.9716860255224695
0                         -0.9379802137355473
0.14758786793831413       -0.9508843647912961
0.20859021948889286       -0.9696237475162353
0.21410658012190148       -0.9474253680374449
0.27815451449394707       -0.9685871986717678
0.2860050991095361        -0.9453313802916015
0.34772603907440847       -0.9676190048420997
0.13689989241071243       -0.9285783106798846
0.07006922287471534       -0.9182269190541043
0                         -0.8869131768635354
0.0579502462349356        0.9523609514684694
0.06952355114319379       0.9699647041949646
0                         0.9699647041949648
0                         0.9402327819642868
0.13170473266844612       0.9475559183644515
0.13904869404238077       0.9691371506331631
0.35666079716909826       -0.9452521214648152
0.4173045550837937        -0.9667510517335178
0.34594390458876934       -0.9195143915695567
0.19153143238212547       -0.9197574592572083
0.2635248854994525        -0.9129695553330716
0.14534660145669426       -0.8860086676755303
0.07833178263151816       -0.8588848986011102
0                         -0.8358461399915236
0.4247390481407429        -0.9431392166765259
0.48689008700579783       -0.9660590392137103
0                         0.8953188528638913
0.07560468542902847       0.9181940379766973
0.2017629842940143        0.9464970264959419
0.20859759993558188       0.9682260656153716
0.15134076219004294       0.9213378214513073
0.2725374546081253        0.9441632696204418
0.2781575711981633        0.9672608479499744
0.3477285067205603        0.9663141802430999
0.3435514902244905        0.9426718234521683
0.41657339969437474       -0.9152580763714961
0.3790568098944403        -0.8803637660174259
0.31204728261454134       -0.865739333665514
0.2264898147501546        -0.8648952395689365
0.16765646081689164       -0.8126011141667645
0                         -0.7244792617621867
0.08794500821209418       -0.763888512490024
0.4939009396883117        -0.9411970938441697
0.5564785588038796        -0.9655985445149355
0.48050624633146266       -0.9116850980947108
0.563901535708929         -0.9397873601104283
0.6260645370888744        -0.9653535337811064
0                         0.8271775658669225
0.07654499434506959       0.8542124793478972
0.12954981593122927       0.8859677801374264
0.21604737523767772       0.919665079608626
0.18111450044858834       0.8842163918202367
0.28984814969249045       0.9119307396942004
0.4118192770995188        0.9414535044007416
0.41730962943937805       0.9655052216105332
0.3562545510519773        0.9125312403997246
0.0940237342292594        -0.6439439922254635
0                         -0.5773198270601458
0.10577845393270142       -0.4769176663838412
0                         -0.41294041506043366
0.10571000518221296       -0.3332374206672277
0                         -0.2657112351403645
0.44410927606606865       -0.8605238967742372
0.3738733608189741        -0.8207839058516156
0.2784569087874054        -0.7776180137017311
0.18765807159489592       -0.7075756681930964
0.5497188763784263        -0.9094915363978253
0.5125922385139918        -0.8662993834046577
0.6319257998054961        -0.9385509775093185
0.695645210040626         -0.9652646423370026
0.6169983114043177        -0.9058863263932759
0.7652203669889166        -0.9652781648293809
0.7007071519229691        -0.9391295263105593
0.10640031823384488       -0.2001023635160755
0                         -0.13285561757018183
0.087340687585698         0.7625582839559465
0                         0.7152957414006735
0.16845739524282996       0.821792858041838
0.24187394027525475       0.8666431681142194
0.3202691830604588        0.8609718764460875
0.10660635099121651       -0.06658342483136259
0                         8.881784197001252E-16
0.10639090803040528       0.06680164897423346
0                         0.1328556175701836
0.10556363082583138       0.20016838695394204
0                         0.2657112351403661
0.1041906964162227        0.3328331595842317
0                         0.41761268767792403
0.10267833916423838       0.47222132600474537
0                         0.5673168508144784
0.09460389094775029       0.6407832453990613
0.47779336122725324       0.9397141231296539
0.4868959131307756        0.9649061313780015
0.42480281767807215       0.9111653681718115
0.3836049880328212        0.8736158783252583
0.20308247993525083       -0.5532108567441166
0.21002255425760963       -0.4016164886203395
0.21305389879426528       -0.2688588223273874
0.435759504202409         -0.7875662569073223
0.5087039321162173        -0.7972949066445967
0.382088412108065         -0.7198579006377089
0.30120144814952804       -0.6467555037035563
0.5799960417937408        -0.8527361634033223
0.6872760348638159        -0.9075454237800029
0.6500377112594022        -0.8656966635829744
0.7714017651248489        -0.9399135088995693
0.8347892999310043        -0.965361090690039
0.7551169250685785        -0.9100776280446704
0.21385775745558455       -0.13451530383014215
0.18520146356830347       0.7127388711623733
0.2784652445134033        0.7756960503380679
0.37364389104323714       0.807501728784
0.2136721605709636        -3.157921403534996E-5
0.21246010180182937       0.13436432798430778
0.21024180668598502       0.2683152483618502
0.20683331045635084       0.401133772635777
0.1974548261356054        0.5496722704199443
0.5479116226968233        0.938527217645671
0.5564823448340146        0.9645056349220126
0.49367879814363774       0.9052054377327533
0.4504622777970222        0.848293663856972
0.842441987962546         -0.9400677587848958
0.9043495681385488        -0.9654596843553418
0.31402491676109384       -0.4853665271976659
0.32048500665387986       -0.34017104658622627
0.32237382825618877       -0.20406694429216807
0.4712702017280371        -0.7101666785070326
0.5790161869983045        -0.7796102543625322
0.543175062619335         -0.7209461041374619
0.4319690489620361        -0.5762570451549953
0.6468568004121349        -0.7995509283280303
0.7189043011792516        -0.8487797795402043
0.8265794521087236        -0.9093665858556541
0.7899376767098945        -0.8658311461802779
0.3220790616656099        -0.06811733186211916
0.2879121998882102        0.6421249792801083
0.3733213173321308        0.7066078864028835
0.4359762280614943        0.7757295048041205
0.32062334361559447       0.067727993177968
0.31815239020059144       0.20324011175729426
0.31414785827288394       0.33813366590416283
0.30391049368011974       0.48227341952296543
0.6204542259640669        0.9381260824571996
0.6260676150639505        0.9642719033836753
0.5631404219460616        0.9052566164466016
0.5244440936313756        0.8586264195024574
0.5212895357473379        0.7785526349056426
0.9111915376885908        -0.940599482621459
0.9739038377000921        -0.9654404370796239
0.8935473203106632        -0.9093395833783404
0.9804703421701031        -0.9399124185344371
1.0434639412797422        -0.9652571011583865
1.052396409434477         -0.9393936830041953
1.1130381401224376        -0.9650856294516679
0.4320604599052508        -0.1376177047214307
0.4297699274541015        -0.4162943872257316
0.4340438563639017        -0.27675591763497526
0.536056281290172         -0.6175191210459672
0.6208287109639439        -0.70013956012718
0.5311538596433403        -0.48659244727717227
0.7108448228269356        -0.7529481124989545
0.7881371353809005        -0.7976508164805117
0.8586242594413703        -0.8485329741216179
0.4299009826787554        7.034314977934451E-6
0.3976771232901524        0.5631122807986652
0.46625321719628743       0.6754827744123391
0.4274335842030335        0.13695619306852075
0.4234265437775379        0.2741388317964798
0.41530466029804985       0.41022981019636445
0.6896461024725424        0.9376370849673403
0.6956524142070839        0.9641939277357039
0.6371175602997368        0.9039208367623626
0.6013922419471254        0.8432911830267777
0.7581996165655737        0.9373697547614737
0.7652364370025734        0.964280072086956
0.5658924386507158        0.6541158484018373
0.6192083820992503        0.7439027325718084
0.5401226163571007        -0.06827838044165434
1.1244621666770929        -0.9394277019183822
1.1826201395708684        -0.9651060912487788
0.9676910371740168        -0.9091827047813273
0.9296672332384361        -0.8654250231973315
1.0347515494882245        -0.9062080942055704
1.1029658568823313        -0.9020567984798594
0.5438372684490915        -0.20708005368532378
0.5585360218543539        -0.3531226455366981
0.6329370601449107        -0.5574787058486768
0.7014008262456425        -0.6451331519834396
0.6382377528970677        -0.45827204766781704
0.7941597327154694        -0.6842326127784886
0.856348852081366         -0.7687064493385383
0.9252026734802796        -0.7956179906285584
0.5370011438823665        0.06954197499868393
0.5208435257580832        0.5187343551201498
0.5341156945979436        0.20782627905026718
0.5312611225197311        0.3485252159991978
0.7031227687001647        0.9039852997680904
0.6754998434852248        0.8589526721347525
0.6808493748135005        0.796238601904779
0.8290916436279856        0.9378874960628495
0.8348173414052887        0.964526361325396
0.7755637486113032        0.9046449615535552
0.9043922725910332        0.9648944839349527
0.8994887025117309        0.9381293746345274
0.6206611856501625        0.5540325464815284
0.6441150989937461        0.6404898731040626
0.7016584378935354        0.6940696376730895
1.1947356800177755        -0.9385910970959455
1.2521991212406913        -0.9653010238850156
0.6508708400343086        -0.1328113766413047
0.6466234316238023        0.0024350299464876725
1.1781697025080828        -0.902356852831441
1.0018193314025674        -0.8468112781484293
1.074019586502194         -0.8582464147338659
1.1398308103714978        -0.8444764184551494
0.6595765251357751        -0.26257893068286164
0.6722415661690113        -0.36422510650041506
0.7448786604035191        -0.5391108458853006
0.7299583435305381        -0.4230778733231245
0.8578941816987369        -0.5610856492971579
0.91307781421679          -0.685852889610425
0.9916785505011476        -0.7583793293550088
0.6436885290416806        0.13850035535041724
0.6488549327014832        0.42564200955111614
0.6417359659660407        0.27941844395565746
0.7460354522691885        0.84673031205855
0.7592946710654701        0.7475907376275032
0.8482928534052867        0.903652968409496
0.814477512880589         0.8622095696668649
0.9674203305918156        0.9391975478620525
0.9739586905163363        0.9653291496099466
0.9192509621139364        0.9059174599988367
0.7125426485668733        0.5657248567236673
0.7692799608561034        0.6462754656521243
1.0346382364837439        0.9402157804365152
1.0435149674799429        0.9657429188749869
1.2660161387331417        -0.9382864771827037
1.3217701446340748        -0.9655908386365644
1.3424083777602527        -0.9411092371168679
1.3913307811166937        -0.965907630127617
1.2522270195520302        -0.9026360125251054
0.7590008683455154        -0.19490515436686903
0.7561223146267819        -0.06191864548909354
0.7519097651847871        0.0695998919299566
1.2189641565609468        -0.8487108477938337
1.080155363443327         -0.772647714424215
1.1804466695475686        -0.7757259733976567
0.9478458842517317        -0.5732549902151161
0.7729725859623703        -0.3233292473665593
0.8229758666965514        -0.4379291727411247
0.9213770462629907        -0.46331987100727823
1.0335945007949472        -0.6553942275651581
0.7624445950749374        0.4455420285433398
0.7506784162677089        0.20225084460407183
0.7528310715843317        0.3346780292963258
0.8219334899688713        0.7964434379603755
0.8355305178357956        0.6923754164880308
0.8857157493514627        0.8453611591772308
0.9858073403234491        0.9053561293082074
0.9538254016443055        0.8623328250583835
0.8407843287981455        0.5540224360604102
1.1051863440900105        0.9412519334604476
1.1130642810481512        0.9660114546865182
1.0540398473923764        0.9066264569674404
1.1752295154372323        0.9420743294120675
1.1826137219288495        0.9660988036535161
1.4026434944859494        -0.9413047832431272
1.4608817821212716        -0.9661210177791342
1.4713475496715709        -0.9417209515422225
1.5304305466789163        -0.9661365478297136
1.3176804106038826        -0.9006200286692053
1.3862939630979652        -0.906073463905015
1.2932858808771854        -0.8444720809988087
0.8546385980377533        -0.23740343680272344
0.8656749334890703        -0.12589324017036926
0.8547952778087359        0.13358358905684478
0.8595441754797312        0.0027572950279050414
1.2625418729335047        -0.7736422471771942
1.1396980949833666        -0.6695003593142372
1.2291541529731296        -0.6797916402821353
1.018360864814966         -0.5160252741553563
0.9124974303055009        -0.3431766837498126
0.9995471687867052        -0.4115587760141479
1.1137434560519743        -0.5419332300626598
0.8560683303312575        0.3931680967735012
0.8563841775092746        0.2639836367153823
0.8964594514929302        0.7610011120676499
0.9001060005945402        0.6573636362614417
0.9606685238202806        0.7983689909715141
1.0221107848247835        0.8479129852689838
0.9475756152978403        0.46036884252034016
0.9401275025581884        0.580313827475135
1.1204070174185012        0.9116314876098467
1.0888481930676326        0.8650122298256205
1.1854443885834411        0.9136752865977398
1.2428252032671563        0.9422379426035712
1.252166616794913         0.9660693537718498
1.5400782189005633        -0.94061501775056
1.59998586717491          -0.9659942933050947
1.457116416148708         -0.9061376653027926
1.5304298793566966        -0.9086002214383664
1.365554343668407         -0.8485335807946711
1.4269772536271195        -0.8659864134151769
1.3421876094836387        -0.7778376183098079
0.9802491535681457        -0.2093930036356374
0.9684260275838232        -0.06450455768930294
0.9499770914037691        0.1940987121330414
0.9593796952507525        0.06931210939955924
1.3138145335215496        -0.6831608121143271
1.203335801892313         -0.5565408793164732
1.2765129246005646        -0.5908544696876848
1.089842090797501         -0.41780309874537735
1.0357215928239896        -0.3193032786812176
1.181249685356944         -0.444494457143907
0.9739548776598449        0.32612254842850863
0.98584833959491          0.6958899403938977
1.0297481369640011        0.7687494419329536
1.0939710763585955        0.7964587221029347
1.0589632387241799        0.4263012530295039
1.0411109932785017        0.5535118545823859
1.1564208847748614        0.8561226308169111
1.2241693385940595        0.8772890561248909
1.310661307506313         0.9411348021590508
1.3217215498657902        0.9659578058159273
1.2543057821358548        0.91425961772216
1.6090855034016658        -0.9423177465204602
1.669549853215978         -0.9658250706250844
1.5960085018447367        -0.9137438960331505
1.4884100605572235        -0.853803729537958
1.5636458685760062        -0.8610237302431055
1.429571891530492         -0.7908101474592645
1.3931140878012143        -0.6833581108667396
1.0467631432282523        0.23285581845277728
1.1149478705248017        -0.2194173835439705
1.081915128813042         -0.1058878217858388
1.0680685679337154        0.0182555912006838
1.0529873530960387        0.13746857761554632
1.3514048862611738        -0.5671724210112947
1.2836535737156076        -0.47689594870880114
1.1642743241077071        -0.33008772665220054
1.2481746935705518        -0.383851956568145
1.2091359349021586        -0.23197021259320516
1.0966742587952956        0.3162850986229818
1.0953406519085709        0.6843962942024193
1.1713578066117238        0.7565587505707195
1.1707998467393819        0.4045444015174007
1.135105048626502         0.5338456567719617
1.2359175220965395        0.8112070844511123
1.2841550794298664        0.8611941899014504
1.3813556660603075        0.9404861697873068
1.391278230474412         0.9657554563978344
1.3257366647450022        0.9076912441663383
1.4522406122366012        0.9408642835091168
1.4608387583647156        0.965482965871866
1.6792398345279835        -0.9419275913529938
1.7391189413657078        -0.9656942405752413
1.6615699894767042        -0.9096811838688676
1.625889162154067         -0.8716719847504768
1.525390001314162         -0.7848624673582932
1.611258599889004         -0.8048472089931662
1.484066514730574         -0.6834769878569648
1.4415818660614916        -0.5678103032461282
1.1355015421890449        0.21121067321964088
1.1976818938646239        -0.13347608898613272
1.1814934718457206        -0.018398049330128553
1.1589615845107188        0.09948881919661275
1.3892939681559866        -0.45841454977059687
1.3347383348292472        -0.3768292896332824
1.270848400778004         -0.2937736992895811
1.287424966177126         -0.18575480045734347
1.2093434325797008        0.2945472224433184
1.2674551477073253        0.7169805893613348
1.2093199942605164        0.6335579363311813
1.2799067623802616        0.3799545231929279
1.248003117285216         0.48920385260194754
1.3119468754614008        0.7990972899313671
1.3550166522124591        0.8595307621527986
1.3957739008728787        0.9060981320969861
1.3446672812919254        0.7175475430598993
1.5219620500306492        0.9394864855721522
1.5304044778385553        0.9651945551490069
1.4676008025400846        0.906121429740792
1.5919199160653563        0.9388479210337498
1.5999751760067953        0.964937306190608
1.7466780351258777        -0.9396722584265778
1.8086917636286308        -0.9656017590908647
1.733654544446114         -0.9080013926042272
1.8154609991884754        -0.939574720281367
1.8782672482011928        -0.9656063138637316
1.8869724515540471        -0.9405129396657402
1.9478392281835826        -0.9657366569718007
1.691198801471431         -0.8502464887226597
1.5846019397377198        -0.6930060747435064
1.6774196537428558        -0.753593737617698
1.5400218783537938        -0.5671051094115938
1.4938240758201238        -0.443472752853298
1.2429719759084918        0.18252663397587796
1.3095870571892787        -0.054638285208196816
1.2727465987629443        0.06586948960210046
1.437649231151682         -0.34822758284301286
1.36688661781361          -0.2613476029045576
1.38013944516651          -0.1482659851333908
1.4024907211812536        -0.05863997069473299
1.33108315761083          0.27497617569958466
1.36912530381812          0.37062239280042336
1.4233934344396055        0.31876753142410563
1.3267657115946163        0.6060449635402092
1.354195416935359         0.46268300353002784
1.392764951291955         0.7836287778227206
1.4331759526873995        0.8512887474259826
1.417654588256011         0.6791374073025199
1.5399268865904223        0.9054202932676583
1.4985453280593983        0.8603402409337646
1.6631709790892146        0.9392042780985235
1.6695496829937864        0.9647535317455521
1.6066118646600684        0.9075881250361665
1.7339462070819043        0.9386907144544296
1.7391263050654426        0.9646654975824184
1.9586813706460369        -0.9405735274229517
2.017402528831837         -0.9658990484702356
1.8039290685712945        -0.9072633748268257
1.7652829316211915        -0.8653166053950865
1.870524515936161         -0.9075203821152354
1.9425554030565166        -0.9071807849394747
1.7588450217139362        -0.7949409631468547
1.7434637800981792        -0.6875812537565852
1.6216354022424366        -0.5710734362833213
1.6729991333899008        -0.6501687936351812
1.6144214715304177        -0.44379110148634326
1.55070124456248          -0.33207821553350736
1.3545864520136979        0.1506355303743671
1.391743886713464         0.03365328238170252
1.4904511457286445        -0.2172230863628354
1.473969121000886         -0.09988839320194194
1.4582478071716158        -0.023806645525914945
1.4382547421359337        0.22777939568607214
1.5129839461230112        0.30990966872152514
1.462032675026176         0.41409461923405255
1.4423155228260516        0.5334507826261333
1.4887113067964428        0.7801855748808411
1.5107027557350754        0.6539668018853158
1.5715579504408592        0.8458373976999543
1.677991407302419         0.9092555910507925
1.6437809412145838        0.8643978488967199
1.8024425738452448        0.9387514226941798
1.8087045370861492        0.9646731701418907
1.7463579344950315        0.9078463823609856
1.8704740352276943        0.9387165456214578
1.878283959157344         0.9648008983762699
2.02667683839561          -0.9402263504485259
2.0869588674478923        -0.9659839593218974
2.0947367909637635        -0.941041089897018
2.156513453795751         -0.9659521342461798
2.0148032052558698        -0.9072867363546131
1.8383220137383178        -0.8482444446854686
1.9106704080706316        -0.8610465811911711
1.9757176416768718        -0.852240049391567
1.8280357242502394        -0.7424810707194104
1.811333158102245         -0.630395448667792
1.7317720125753193        -0.5412137402685755
1.6589061575516373        -0.32152888495725235
1.7171363978416543        -0.40358012702073226
1.6076924293168717        -0.22197053238908646
1.4617486610025088        0.11947924970131214
1.4828210257280774        0.036681931620901255
1.5691311306967277        -0.12221091066804275
1.5348307291463925        -0.028058629060934797
1.5387918593525376        0.1935215446876023
1.613397081619716         0.2737962653404853
1.5781712975545437        0.3913003952053987
1.5391249941558955        0.5128180408001117
1.5811517393812102        0.7407240356257503
1.5895725641098857        0.6331824599982386
1.6476438303291014        0.7932957825295603
1.7153632531118082        0.8490392810811109
1.8168369416917656        0.9081459777013049
1.7826878041854914        0.8659715007391623
1.9412115030417172        0.9397206929177807
1.9478606527645907        0.9650742633293358
1.8846460620410543        0.908200300010206
2.0118632692112928        0.9396065424517599
2.0174296704902885        0.9654365065675157
2.0856829037877627        -0.9106503767146686
2.1648167386467208        -0.9419268092750892
2.226070022747091         -0.9658252365619644
2.152533878621075         -0.9139526504739343
2.234653369132636         -0.9412322670051
2.2956301404296924        -0.9656349315753012
2.0529844538502964        -0.8593781327566238
1.920757014793041         -0.7823135892545092
2.0131804282469408        -0.792011439540362
1.8956220254714435        -0.6612688125161453
1.8577722481160428        -0.5194323660782428
1.8162120812182974        -0.4179826300470607
1.7159033087337254        -0.21750026155427218
1.7723094728676634        -0.3123510909558478
1.6651162816047873        -0.12213322516148432
1.5642940000713412        0.07460381345722766
1.6282573539011342        -0.0271477359412629
1.6420727410037184        0.15556088146295108
1.7113929797869087        0.2396254329072067
1.7553344952291408        -0.1294065106990971
1.6847294331674796        0.3509512961780666
1.6561776401265198        0.46726871113191615
1.6364373004491308        0.5722134723461775
1.6735028768418496        0.683921720718206
1.721652619647426         0.7649348507272858
1.7870728508050433        0.7926659301507565
1.8523148603702522        0.849876135816392
1.9548891727462807        0.9101321165166583
1.9210978011037092        0.866853813326321
2.0800372259515347        0.9401818171627212
2.0869899387333386        0.9657897611867707
2.0290877110795753        0.905576904082978
2.1471987002184756        0.9408370793320697
2.156542704513509         0.9660662322078953
2.3023658101027724        -0.940981077083567
2.36519447141518          -0.9654187433914153
2.12160627373025          -0.8672147814057399
2.217923735502117         -0.9109820638990875
2.182784578085766         -0.8760017322275574
2.287176881124945         -0.9116297476348167
2.0980304067170104        -0.7994016530074971
1.9882663045813007        -0.689341500548901
2.0646101474831924        -0.7182734027442208
1.9638174340898744        -0.5351955783340634
1.7939275618095465        0.31081464597658076
1.7898152567394081        0.21557744914633462
1.9408015568958836        -0.41829061715693855
1.8851060537049023        -0.3158545401015115
1.840592838155763         -0.19766010205425733
1.7333366743973908        -0.042875111124489655
1.6943564531489625        0.0518137856744318
1.7438831955780563        0.13632011411582676
1.8297098224406692        -0.0803872493156903
1.8287270058540606        0.1599558701853668
2.3706913887958674        -0.9397287160338204
2.4347629551193872        -0.9652169036069465
1.7556028912788528        0.4249159881892046
1.723808427011505         0.5638764290824149
1.7844364606318421        0.6760425840139225
1.8629135879397858        0.7509816794611475
1.8437768550622724        0.39794079788565623
1.9247493390982198        0.7976677097486953
1.996163843143938         0.8501123944096336
2.0931992430635136        0.9099792150558521
2.0638246470061126        0.8675889897853029
2.167509384584397         0.9120425132703269
2.2171140155723412        0.9416627086772857
2.22609109001896          0.9661869015469543
2.3569212247917104        -0.9093674642111973
2.172502902665283         -0.8093733944383223
2.2499315023577724        -0.8549539629882504
2.318936045957334         -0.8682154684722031
2.1448203516085735        -0.7162412498189631
2.0787532462621368        -0.5943711708053809
2.051944018002953         -0.4631254362339696
1.8714975933513491        0.23175121644052543
1.898119002106014         0.3214228465402898
2.0349007924133504        -0.37149896732588983
1.9794072753851788        -0.32039899391792404
1.961744044424976         -0.2279781501070845
1.9307233751271249        -0.12400934265457811
1.827245640059651         0.05001026869616494
1.9153240996429557        -0.03613934004770568
1.9171117980747483        0.13829645600248636
2.4411463922461785        -0.9393810785350809
2.5043352124520695        -0.9650604037593096
2.4263412318722803        -0.9087086288525801
2.5118350456793106        -0.9390494037447586
2.573910273813312         -0.9649839283106012
1.8412177143235444        0.5283537437260658
1.880887147853741         0.6475637342315816
1.9500689663641315        0.6968120843185294
1.929554546479289         0.42908790215804843
2.010521030664814         0.7558733510571902
1.983723805864594         0.3476989970023303
2.073141606161375         0.7995096134170885
2.134478029851973         0.8508338185754436
2.200180419769545         0.8705870570985299
2.2296136971997553        0.912787065480414
2.2870988282253677        0.9411815586989005
2.295642701585532         0.9661115104727186
2.3544575770576586        0.94176668544358
2.3652030776725077        0.9659517239631388
2.3866566332906496        -0.8518939744096066
2.234532494309188         -0.75413946732529
2.3135610428673634        -0.7955628385180904
2.1985601607846954        -0.6319772090518253
2.1587962108000127        -0.48889144642878096
2.124040579339491         -0.3786930447315739
1.9826949863787766        0.24223322541494843
2.070713583664369         -0.27646805508049666
2.042371573518572         -0.1580316958992869
2.0075562177859623        -0.048059832249031965
1.9520415490828285        0.04875739447879093
2.02865045385434          0.12697918594885874
2.5803223604992818        -0.9384358653205915
2.64348383423732          -0.9650259619358612
2.4959338779806837        -0.908583903228487
2.457074957567402         -0.8669071085393406
2.5574587139420295        -0.9005761453132329
1.9692104340041714        0.5574690937736004
2.024554164296761         0.651922922550988
2.034495795748218         0.42637428193265237
2.095291708218413         0.694327426472354
2.0737556294215           0.31938019787312166
2.152593540622474         0.7588672019944066
2.2096659503579072        0.8083317251798048
2.259635036853691         0.8689401629866604
2.295620393283045         0.9109227364865035
2.4231649476272676        0.9410730987611954
2.434767677243463         0.965833348943726
2.3670350244487457        0.9025310567289359
2.449981124561519         -0.798337683982609
2.37761813970174          -0.7645392417263474
2.3136914415875003        -0.6796349161868446
2.273203733502216         -0.5313615244350172
2.235302720095026         -0.4047729426939745
2.1948979224422183        -0.29257892108721084
2.106006621978891         0.2101036780970266
2.1580600101848897        -0.185073260404695
2.120124940890604         -0.07808536854399141
2.073011872510002         0.026306665316357315
2.142748472318247         0.1024956240286594
2.649064339285313         -0.9388828364208734
2.713050661644391         -0.9651319676707946
2.632106653587825         -0.9045867440690052
2.526135400250915         -0.8496801822325831
2.5959133841781137        -0.8601226252094349
2.0963778811957128        0.5567808406150627
2.141459286992494         0.40571597256096165